240
Lattice="12.150945606 0.0 0.0 -0.131504434 12.152185424 0.0 0.073426411 -0.01706706 11.370162832" Properties=species:S:1:pos:R:3:REF_forces:R:3 REF_energy=-1186.50083279 REF_stress="-0.006614595333882929 0.0010159990970204026 0.0010553455705499708 0.0010159990970204026 -0.0031130837482259187 0.0010739140601994733 0.0010553455705499708 0.0010739140601994733 -0.004274928188990836" REF_free_energy=-1186.50083279 pbc="T T T"
H        1.48132000       2.10974000       1.91906000      -0.00804400      -0.40676200      -0.41485000
H        5.12427000      11.94306000       1.48289000      -0.29843800      -0.06140400       0.01582700
H        0.70901000       6.08952000       3.84607000       0.48990600      -0.08819600      -0.06039600
H        3.57648000      11.85245000       1.57328000       0.01250500      -0.34800300      -0.29610700
H        2.25013000       6.16595000       3.91473000       0.05006200       0.20132800      -0.05923800
H        3.69318000       3.09854000       1.61175000       0.09193600       0.47650500       0.03110400
H        2.22542000       2.60076000       3.90631000       0.26427700      -0.10115700       0.02776800
H        1.83434000       4.50169000       0.59444000      -0.91116000      -0.03023900      -0.07839500
H        4.26047000       1.37053000       4.87705000      -0.43004500      -0.07750000      -0.07705200
H        4.43523000       1.84479000       2.12794000       0.35251900       0.26484000       0.10353500
H        1.60654000       3.99136000       3.46880000      -0.21206500       0.18514800      -0.08908500
H        4.52494000       5.39592000       3.68287000      -0.04990900      -0.14821400      -0.05702700
H        1.50258000       0.55867000       1.73192000      -0.04187800      -0.03672100       0.06353000
H        4.53608000       3.83798000       3.57892000      -0.00576200       0.30824700       0.16262000
H       11.84652000       3.80640000       1.17512000      -0.00806300      -0.08061900       0.07671400
H       11.88939000       4.49022000      11.15183000       0.34717800      -0.01531700       0.62864200
H        6.44955000       1.26600000       5.62466000       0.04049800      -0.01195000       0.18525800
H        3.24514000       4.45530000      11.10507000       0.02762400      -0.14061700       0.07319500
H        2.82959000       1.28188000       5.63286000       0.17235900       0.04898500       0.04693500
H        6.34056000       2.05079000       4.29792000      -0.05269500       0.03390000      -0.19293800
H        1.57020000       2.01146000       7.63171000      -0.05444500      -0.02526900      -0.28214400
H        5.12918000      11.75978000       7.05022000       0.12241300      -0.04991200       0.09216500
H        0.78181000       6.09322000       9.61071000      -0.77334900       0.11804500       0.14787100
H        3.60869000      11.64275000       7.18708000       0.18541300       0.10424300       0.05231300
H        2.26872000       6.17367000       9.58955000      -0.01902600      -0.24336900      -0.33710200
H        3.90412000       3.05252000       7.18551000       0.07919400       0.28547400       0.20433200
H        2.36082000       2.60222000       9.48099000      -0.27188500      -0.02524800       0.05206600
H        1.87857000       4.41201000       6.26028000       0.39391900       0.14423900      -0.02525500
H        4.18159000       1.45078000      10.52777000      -0.72461900       0.10851300      -0.01172900
H        4.54452000       1.72964000       7.66338000       0.29056100      -0.03174500       0.09595900
H        1.57013000       3.93580000       9.05746000      -0.04425600      -0.17835500      -0.06865300
H        4.58135000       5.19637000       9.32924000      -0.00517300      -0.08112600       0.03682900
H        1.57339000       0.47596000       7.50201000       0.01528700       0.08383200      -0.01959700
H        4.66346000       3.66245000       9.26436000      -0.21679500      -0.10018700      -0.10473100
H       11.95341000       3.61474000       6.71049000       0.08817500       0.22425000       0.04528300
H       11.76823000       4.43369000       5.40394000       0.34956700      -0.00872900       0.20044800
H        6.42620000       1.42146000      11.30610000      -0.10232000       0.01953800       0.05120800
H        3.27333000       4.49254000       5.44413000      -0.14343400       0.07412600       0.31158700
H        2.72964000       1.46898000      11.30952000       0.43391000       0.06776900      -0.52135000
H        6.31521000       2.15715000       9.93304000      -0.12319900      -0.43104900       0.17828400
H        1.37387000       8.11762000       1.85097000       0.11145000       0.37328600       0.29926200
H        5.20545000       5.68225000       1.53001000       0.18111700      -0.11728400      -0.26325300
H        0.77752000      -0.00390000       3.87271000      -0.60830100       0.15065500       0.27804800
H        3.67080000       5.71212000       1.55948000       0.27080500       0.07685900       0.01852400
H        2.27008000       0.03075000       3.75962000       0.73471700       0.20747300       0.32577100
H        3.67944000       9.18529000       1.51134000      -0.10624100       0.15825700      -0.04942800
H        2.17300000       8.70492000       3.82682000       0.01230900      -0.33379600      -0.03770800
H        1.80595000      10.47375000       0.57144000       0.12182200       0.00269200      -0.13828300
H        4.02678000       7.60976000       4.83198000       0.21045800      -0.11742500      -0.02703500
H        4.46219000       7.84109000       1.91242000      -0.09753800      -0.03478500       0.09901600
H        1.43225000      10.02875000       3.40655000      -0.19875900      -0.45218300      -0.23992800
H        4.50818000      11.19992000       3.51322000      -0.27736200      -0.45854700       0.61483500
H        1.36424000       6.59290000       1.83041000       0.17761000      -0.01380500      -0.10206500
H        4.45129000       9.64458000       3.49356000      -0.09468300       0.70340900       0.55173800
H       11.75450000       9.91130000       1.20243000      -0.05029100      -0.29557500       0.29580200
H       11.77026000      10.59268000      11.20258000       0.21738600      -0.04673200      -0.07396000
H        6.23252000       7.40981000       5.59790000       0.22585100       0.07040400       0.30725000
H        3.26817000      10.47606000      11.10418000      -0.05814500       0.16728100      -0.09725000
H        2.62709000       7.44683000       5.61826000       0.29711700       0.08823400      -0.43192700
H        6.32390000       8.19595000       4.26485000       0.18088700       0.34064200      -0.18845900
H        1.44278000       8.16322000       7.57812000      -0.00793800      -0.30462400      -0.11265800
H        5.36187000       5.75189000       7.28644000      -0.07616700       0.18644600       0.20468900
H        0.77904000       0.02888000       9.56365000      -0.20101400       0.07405400       0.05912000
H        3.84831000       5.63722000       7.24901000      -0.16769800       0.21771300       0.16195800
H        2.29209000       0.05701000       9.57178000       0.52431500       0.29138800       0.18247600
H        3.75400000       9.12547000       7.22437000      -0.33035900       0.13488900      -0.08400500
H        2.22014000       8.60514000       9.53224000       0.41912900       0.02809600       0.30538400
H        1.79597000      10.44017000       6.23537000      -0.12166600      -0.11828300      -0.07654900
H        4.18247000       7.38140000      10.51238000      -0.62760000       0.04836800      -0.01270400
H        4.52899000       7.80251000       7.63786000      -0.10857000      -0.40397100       0.11925400
H        1.48646000       9.99475000       9.17317000       0.16180000       0.60886300       0.03623600
H        4.58930000      11.30447000       9.15503000      -0.27585300      -0.25729300      -0.10629400
H        1.40332000       6.59232000       7.48565000       0.22818700       0.63769800      -0.20774800
H        4.44346000       9.73201000       9.24120000       0.06295400       0.60992800      -0.06142400
H       11.88434000       9.59570000       6.78503000      -0.17646100       0.23713900      -0.27868200
H       11.76260000      10.38779000       5.40334000      -0.00402400       0.08634700       0.40481600
H        6.32306000       7.22246000      11.26117000       0.07931000       0.33805600       0.02404000
H        3.18017000      10.43287000       5.43679000       0.29615100       0.06662900      -0.86217700
H        2.71830000       7.42083000       0.00180000       0.05452300      -0.03734700      -0.15051600
H        6.23297000       8.09400000       9.94021000       0.25959700       0.00865300      -0.00520000
H        7.48324000       2.12603000       1.88419000      -0.03953800      -0.00617800      -0.26519500
H       11.29475000      11.91463000       1.50821000      -0.33967800       0.03906600       0.17326100
H        6.71179000       6.10164000       3.86348000      -0.32374100       0.18086100       0.11334500
H        9.73375000      11.83235000       1.64995000       0.81440800       0.35687300       0.08671800
H        8.23826000       6.08424000       3.84704000       0.03430100       0.06965100      -0.10172800
H        9.77941000       3.23558000       1.56208000       0.59302600      -0.39740700       0.22804300
H        8.27428000       2.64617000       3.83822000      -0.18797300       0.34965800      -0.33418800
H        7.96554000       4.27090000       0.36022000      -0.72621600      -0.01554000       0.25850200
H       10.26932000       1.42551000       4.86277000       0.57238200      -0.04972100       0.24135600
H       10.57490000       1.89260000       2.05449000      -0.07937900      -0.26245100      -0.13866800
H        7.49625000       4.01011000       3.36698000       0.17324300      -0.16412800       0.00465100
H       10.63885000       5.33823000       3.68785000      -0.13999900       0.18480700      -0.25302600
H        7.57098000       0.60739000       1.71690000      -0.12101400      -0.21521300       0.06615400
H       10.60365000       3.79810000       3.43485000       0.07646400       0.09307600       0.07095700
H        5.71611000       3.69858000       1.15788000       0.13830600       0.15166800      -0.08806600
H        5.72621000       4.35249000      11.12775000       0.01557000       0.16593100       0.23981400
H        0.44094000       1.23691000       5.59987000      -0.19369000       0.00450800       0.34473300
H        9.46010000       4.23515000      11.07698000       0.26243100       0.05459100      -0.08583500
H        8.87058000       1.37752000       5.65802000       0.15365200      -0.00879000      -0.02290800
H        0.21342000       1.97420000       4.28159000       0.11475600       0.39732700      -0.27023600
H        7.57564000       2.04903000       7.46341000       0.13681300       0.04866100       0.07540200
H       11.40720000      11.66551000       7.26172000      -0.05769100      -0.02815900      -0.21135200
H        6.90514000       6.06755000       9.59160000      -0.55459000       0.26550300       0.23222200
H        9.86098000      11.62196000       7.24688000       0.28165600       0.21048900      -0.03507400
H        8.42523000       6.17292000       9.50252000      -0.09200700       0.06471000       0.04061600
H        9.88774000       3.03698000       7.26796000       0.19875400       0.04148000       0.16644500
H        8.37705000       2.53362000       9.51399000      -0.39493700       0.22225300      -0.38408700
H        7.99990000       4.39543000       6.27572000       0.30704300      -0.19485000      -0.23001100
H       10.28560000       1.36699000      10.47664000       0.50197600      -0.08570400      -0.03042900
H       10.60466000       1.70633000       7.72102000       0.14092300      -0.66747600      -0.00852500
H        7.71840000       3.94121000       9.07414000      -0.03101300      -0.20083400      -0.06635600
H       10.60584000       5.13543000       9.33377000       0.16960900       0.03411600      -0.10643700
H        7.64652000       0.52165000       7.49050000       0.07972600       0.02971900      -0.01648800
H       10.78743000       3.60496000       9.23231000      -0.03964900       0.17478600       0.09899300
H        5.94985000       3.71881000       6.82051000      -0.06663400      -0.01914100       0.02231800
H        5.77463000       4.53027000       5.51418000      -0.05689400      -0.04160900      -0.31117100
H        0.34242000       1.34918000      11.25339000       0.15214200       0.17340100       0.16977700
H        9.36925000       4.30762000       5.40756000       0.01104900       0.08999300      -0.23361200
H        8.96017000       1.30849000      11.34460000      -0.12668300       0.18537100      -0.04440000
H        0.26690000       2.04110000       9.84294000       0.19314900      -0.08175300       0.23063300
H        7.46509000       7.98453000       1.83211000       0.00448500       0.23505400       0.06135300
H       11.21309000       5.76806000       1.39918000       0.43878300      -0.20291500      -0.19636500
H        6.96231000       0.02106000       3.84783000      -0.09304300       0.05249700      -0.00968700
H        9.69333000       5.83508000       1.42807000      -0.03317000      -0.02476600       0.01222000
H        8.47231000       0.06321000       3.77461000       0.83250900       0.58033500       0.54664500
H        9.77912000       9.31031000       1.56217000       0.21205300      -0.16236700       0.17748500
H        8.38345000       8.68851000       3.76223000       0.11642000      -0.21566200       0.06004300
H        7.90330000      10.37955000       0.58774000      -0.24431100       0.15692500       0.00659100
H       10.20734000       7.33905000       4.85353000       0.38251000       0.10637200       0.11972400
H       10.63190000       7.98497000       1.91851000      -0.30793100      -0.09327900       0.07912100
H        7.64091000      10.02043000       3.30033000      -0.10783500      -0.41341800       0.05027700
H       10.57518000      11.43541000       3.64687000       0.10347600      -0.09491600      -0.25926000
H        7.37887000       6.46803000       1.73778000       0.14186500      -0.16526800       0.08055700
H       10.57830000       9.85366000       3.58942000       0.03098800       0.30353400      -0.33144300
H        5.77645000       9.78853000       1.20021000      -0.25220400      -0.17297400       0.37389000
H        5.80118000      10.35109000      11.17577000      -0.19626900       0.36919800      -0.37633900
H        0.25849000       7.33187000       5.60516000       0.24113500       0.23993900       0.37875600
H        9.35458000      10.45435000      11.15896000       0.21725300       0.01360300      -0.49836100
H        8.77818000       7.39675000       5.62195000       0.47931900      -0.15944600      -0.59962700
H        0.18143000       8.18352000       4.28649000       0.23613400      -0.07612700      -0.06850900
H        7.46527000       8.16061000       7.48926000       0.18183500      -0.67387700      -0.11608100
H       11.33615000       5.62438000       7.21610000      -0.31618700       0.05574800      -0.02641400
H        6.86325000       0.06227000       9.53302000      -0.62602200       0.24974300       0.15000300
H        9.77479000       5.60186000       7.18590000       0.50533300      -0.05590100       0.03344400
H        8.36247000       0.03677000       9.66757000      -0.08479400      -0.02104900      -0.61675100
H        9.75777000       9.18049000       7.32340000      -0.06969500      -0.04297800      -0.22834000
H        8.31388000       8.80727000       9.57271000       0.22884900      -0.25732500      -0.05600200
H        7.83842000      10.40026000       6.29346000       0.09278200      -0.00773700       0.03506300
H       10.17331000       7.53498000      10.47083000       0.07688300      -0.02911000      -0.05070100
H       10.46636000       7.80601000       7.70093000      -0.05308500      -0.81663400      -0.12138700
H        7.49551000      10.05450000       9.01135000       0.05236600      -0.04749300       0.07556700
H       10.54071000      11.20778000       9.16413000       0.12741500      -0.08645400       0.15398600
H        7.57119000       6.60597000       7.57978000      -0.02904100      -0.02682200       0.08617100
H       10.66975000       9.66336000       9.25673000      -0.12036500       0.42263800       0.16024600
H        5.68852000       9.69202000       6.81720000      -0.07854200      -0.08777800       0.06322800
H        5.64198000      10.41040000       5.42045000       0.14885700      -0.14294300       0.21383600
H        0.25598000       7.49280000      11.28170000      -0.06910800      -0.12064500       0.06043900
H        9.16825000      10.39659000       5.43720000       0.33384100       0.14819800      -0.22293700
H        8.78101000       7.44954000      11.23557000       0.03503100      -0.07432900      -0.06348300
H        0.21045000       8.17168000       9.88150000      -0.19498900      -0.34941300       0.27245200
O        2.79941000       4.42831000       0.64505000       0.87302300       0.05351000       0.21625600
O        3.26589000       1.35865000       4.75119000      -0.04377400       0.01740600      -0.04023900
O        0.11943000       4.55478000       0.68630000      -0.31001100       0.00216700      -0.71734400
O        5.93474000       1.28965000       4.77896000       0.07944400      -0.01677900      -0.11719500
O        4.48284000       0.13393000       1.99340000       0.41222800       0.21504600       0.28333100
O        1.52770000       5.68454000       3.44229000      -0.50844000      -0.09205000      -0.00080900
O        4.49743000       2.84560000       2.12324000      -0.35749800      -0.63496300      -0.06090600
O        1.48329000       3.00996000       3.40568000      -0.01244000      -0.31878000      -0.05410800
O        4.54064000       4.58758000       4.24667000       0.06286500      -0.28026400      -0.30069400
O        1.50035000       1.38762000       1.20795000      -0.06636100       0.45875600       0.50050100
O        2.87025000       4.51301000       6.35371000      -0.09757300      -0.27091100      -0.18500900
O        3.17665000       1.50488000      10.40905000       0.59414400      -0.35490800       0.56767800
O        0.17146000       4.40762000       6.24242000      -0.42463500      -0.34419700      -0.07006300
O        5.89096000       1.42486000      10.46666000       0.08010000       0.27511600      -0.36975700
O        4.38785000      12.14062000       7.57423000      -0.08130800       0.18672700      -0.04106200
O        1.52161000       5.68193000       9.13384000       0.75475100       0.11900500       0.10756800
O        4.67500000       2.71569000       7.70252000      -0.40635100      -0.12351400      -0.28814000
O        1.54681000       2.94227000       9.00387000       0.10148900       0.40973700       0.00709200
O        4.55711000       4.39795000       9.91374000       0.12451400       0.21041100      -0.38476400
O        1.58582000       1.28477000       6.93747000       0.01556400      -0.05786700       0.03454000
O        2.79524000      10.49704000       0.63580000      -0.19036600      -0.06036500       0.22795900
O        3.05672000       7.49554000       4.71065000      -0.27334200      -0.02532800       0.69283300
O        0.07364000      10.59879000       0.67412000      -0.14952600       0.29588600      -0.38282800
O        5.78003000       7.53061000       4.73796000      -0.36189000      -0.48230700       0.01479400
O        4.46601000       6.18955000       1.93183000      -0.47365200      -0.11806900       0.16996800
O        1.37515000      11.69546000       3.40982000       0.13892500      -0.20196100      -0.56059000
O        4.44977000       8.83156000       2.01075000       0.31793700      -0.04461700       0.05070500
O        1.38914000       9.02663000       3.31869000      -0.00293500       0.92472800       0.18453200
O        4.41455000      10.42769000       4.15205000       0.36848600      -0.07940800      -1.23002300
O        1.43883000       7.36607000       1.22154000      -0.21991600      -0.26609600      -0.27641500
O        2.78435000      10.44518000       6.31856000      -0.27792500      -0.08917900       0.92503800
O        3.17398000       7.42848000      10.45711000       0.46870800      -0.06583000       0.05798600
O        0.10871000      10.36056000       6.27230000       0.19554700      -0.07965500      -0.00666200
O        5.85350000       7.30450000      10.39183000      -0.27236000      -0.20070900       0.03452300
O        4.56452000       6.15014000       7.72525000       0.14170000      -0.59998500      -0.41134700
O        1.42127000      11.75145000       9.13188000      -0.17103800      -0.52681900      -0.27835600
O        4.51043000       8.78314000       7.74074000       0.27413700       0.38749000       0.02967000
O        1.45790000       9.02269000       9.07964000      -0.49036700      -0.44612900      -0.39943700
O        4.46291000      10.56187000       9.79591000       0.18763200      -0.57639100       0.31674100
O        1.45131000       7.41396000       6.91704000      -0.07485200      -0.44799700       0.32435400
O        8.91468000       4.30283000       0.56898000       0.25764300       0.07768300       0.00480400
O        9.30140000       1.45225000       4.76976000      -0.80242400       0.01950200      -0.41579600
O        6.14614000       4.42298000       0.62511000       0.03841900      -0.27240000      -0.05376200
O       12.00063000       1.23166000       4.80396000       0.10149000      -0.12313700       0.01750300
O       10.66545000       0.18547000       1.99673000      -0.62279200      -0.49347500      -0.28170000
O        7.45471000       5.67376000       3.39545000       0.37155100      -0.11984800       0.06281400
O       10.60574000       2.87591000       2.02717000      -0.49405500       0.65331400      -0.07474500
O        7.53295000       3.01604000       3.27624000       0.19368000      -0.35179400       0.53679100
O       10.59713000       4.49059000       4.16210000       0.04772200      -0.27057400      -0.03995600
O        7.46697000       1.41524000       1.17278000       0.31482700       0.06142900       0.29469800
O        8.99011000       4.26162000       6.30991000      -0.40663800       0.11876200       0.53294900
O        9.30723000       1.31245000      10.42331000      -0.41099300      -0.02258200       0.14592900
O        6.33342000       4.48323000       6.32533000      -0.08463500      -0.04531900       0.29711200
O       12.01704000       1.31644000      10.39465000      -0.36165800       0.04293400      -0.24700000
O       10.62482000      12.10583000       7.67127000      -0.52678900      -0.19489900       0.02152800
O        7.65924000       5.66704000       9.12412000       0.64620900      -0.41197000      -0.38464100
O       10.66473000       2.67666000       7.77378000      -0.18366800       0.74484300      -0.18954600
O        7.63211000       2.95245000       8.98437000       0.38611200       0.04458700       0.43436700
O       10.76676000       4.34887000       9.90332000      -0.19818700      -0.13353300      -0.38267000
O        7.65939000       1.27646000       6.84944000      -0.18387000      -0.06784600       0.20447200
O        8.88100000      10.46926000       0.67931000      -0.04683400       0.03708800       0.44170200
O        9.23518000       7.32522000       4.72706000      -1.00407600       0.11076500       0.52922100
O        6.15917000      10.52202000       0.67097000       0.33045000      -0.08220100      -0.10761500
O       11.94811000       7.39433000       4.74414000      -0.63121800      -0.29024200      -0.30396000
O       10.48222000       6.27573000       1.80926000      -0.27727200       0.23476100       0.33050100
O        7.58952000      11.78993000       3.34855000      -0.75615400      -0.64736800      -0.49410300
O       10.55293000       8.95780000       2.08674000       0.07791500       0.15167900      -0.15356700
O        7.57312000       9.02120000       3.31836000      -0.05193300       0.60135000      -0.17565600
O       10.57727000      10.63072000       4.20527000      -0.16002900      -0.45625300       0.42052800
O        7.44644000       7.26084000       1.16329000      -0.02856200       0.08986700      -0.13889700
O        8.83352000      10.40714000       6.35190000      -0.34688100       0.00518400       0.34748800
O        9.18817000       7.52254000      10.33790000       0.23190000      -0.08955500       0.41994700
O        6.14638000      10.38941000       6.28433000      -0.06754800       0.28835300      -0.36865900
O       11.89472000       7.47068000      10.43475000       0.23077800       0.31375000      -0.18297200
O       10.54574000       6.06350000       7.62416000      -0.19215900      -0.08975600       0.16052700
O        7.50113000      11.82793000       9.08030000       0.66700000      -0.29666200       0.31016200
O       10.57656000       8.77065000       7.68058000       0.26871000       0.74579300       0.37215900
O        7.54021000       9.06506000       9.02640000      -0.60105400       0.52325800      -0.20555100
O       10.58554000      10.47347000       9.83589000      -0.00504300      -0.28658300      -0.09037900
O        7.52017000       7.33470000       6.91963000      -0.08771800       0.71937900      -0.06869800
240
Lattice="12.164547057 0.0 0.0 -0.131651637 12.165788263 0.0 0.073508603 -0.017086164 11.382890296" Properties=species:S:1:pos:R:3:REF_forces:R:3 REF_energy=-1186.56897598 REF_stress="-0.005083759115104921 0.0015404543843409954 -0.0027546650866720726 0.0015404543843409954 -0.004334010314376446 -0.00044654252890219176 -0.0027546650866720726 -0.00044654252890219176 -0.004747903509041143" REF_free_energy=-1186.56897598 pbc="T T T"
H        1.53523000       2.09157000       1.87666000       0.07476800      -0.13307900      -0.45866200
H        5.19807000      11.74631000       1.60701000      -0.06170300       0.31371800      -0.01996600
H        0.71466000       6.04710000       3.88612000       0.00109100      -0.01780100      -0.14801800
H        3.68497000      11.68333000       1.58328000       0.02344100       0.41982000       0.07420900
H        2.23614000       6.19969000       3.83748000      -0.02625900      -0.15958900       0.00881700
H        3.76994000       3.04030000       1.62681000      -0.30733300       0.06636400      -0.17904000
H        2.29858000       2.62614000       3.82541000       0.33838500      -0.01128900       0.12840200
H        1.84797000       4.41250000       0.58390000      -0.57096500       0.02781900      -0.10956000
H        4.21129000       1.31562000       4.84469000       0.24498400       0.16777700      -0.19669700
H        4.57288000       1.70737000       2.05426000      -0.12005000       0.75465900      -0.20213300
H        1.55156000       3.94680000       3.31179000       0.16711800       0.48530500       0.15321400
H        4.55854000       5.12749000       3.48493000       0.04856400      -0.01591600       0.11213400
H        1.66456000       0.59446000       1.79557000       0.05076000      -0.82647700       0.32238700
H        4.59262000       3.58978000       3.54749000       0.00636800      -0.28066600      -0.35830400
H       11.81892000       3.83612000       1.11648000      -0.10604100      -0.32626800      -0.04967900
H       11.82617000       4.45048000      11.07061000      -0.25209400      -0.11980000      -0.17332500
H        6.47939000       1.34793000       5.64233000      -0.13595900      -0.12258900       0.01653600
H        3.34366000       4.40048000      11.23668000      -0.35637800      -0.09105800       0.43140000
H        2.85991000       1.37671000       5.61872000      -0.38816900      -0.02223900       0.30666100
H        6.35473000       2.11722000       4.28625000      -0.11060500      -0.25804100       0.17412100
H        1.51626000       2.07433000       7.60643000      -0.11617700      -0.13784200      -0.23423600
H        5.23207000      11.83708000       7.19604000      -0.42740700       0.06589100       0.07079400
H        0.84048000       5.90455000       9.57147000      -0.22357500       0.31131500       0.24872600
H        3.69459000      11.65574000       7.18992000      -0.18573700      -0.16973200      -0.15406900
H        2.36446000       6.16624000       9.52387000       0.02537900      -0.05557400       0.17689600
H        3.81189000       3.08299000       7.26499000       0.48240100       0.02480300       0.27973100
H        2.34574000       2.56656000       9.51326000       0.29447600      -0.16531000       0.12139000
H        1.95625000       4.27907000       6.25598000      -0.03652400       0.08296900      -0.13972100
H        4.25217000       1.29761000      10.44494000       0.15765400       0.01581500       0.21987600
H        4.55022000       1.73560000       7.65240000       0.11691300       0.38178400       0.23822300
H        1.62424000       3.95063000       9.12550000       0.07330800      -0.66383000      -0.11008400
H        4.62226000       5.10377000       9.33333000      -0.09194900       0.13671300      -0.09524100
H        1.47597000       0.54725000       7.50679000       0.02806800      -0.19937400       0.06740800
H        4.60117000       3.57170000       9.34021000      -0.11605400      -0.25502800      -0.27040300
H       11.78905000       3.65649000       6.78685000       0.45734900       0.32339500      -0.26085200
H       11.86569000       4.35258000       5.39619000      -0.00172900       0.23538500       0.14879300
H        6.42419000       1.31982000      11.33726000       0.06762300       0.12787900      -0.07123900