288
Lattice="15.099176916 0.0 0.0 -5.928815191 13.886478819 0.0 -5.928815191 -8.977875578 10.593962625" Properties=species:S:1:pos:R:3:REF_forces:R:3 REF_energy=-1424.58011578 REF_stress="-0.004342167966803976 -0.000934016874651926 -0.00034662845081505264 -0.000934016874651926 -0.0038882854231697453 -0.003107609944722519 -0.00034662845081505264 -0.003107609944722519 -0.009741223156912017" REF_free_energy=-1424.58011578 pbc="T T T"
H        1.36528000      -0.39851000       2.99313000       0.10946900      -0.49438600      -0.35757800
H        4.21488000      -1.05951000       3.14490000      -0.11282400      -0.30657400       0.24217700
H        4.50072000       0.19580000       4.02266000      -0.12121900      -0.01861900       0.10616200
H        0.20808000       4.06286000       0.71782000      -0.23830000       0.72225000      -0.25906200
H       -0.68366000       5.43821000       0.88547000       0.49956200      -0.53298500      -0.24350900
H       -1.71965000       0.35777000       2.11552000       0.28842500      -0.23456800      -0.50362400
H       13.61978000       0.06385000       0.57744000      -0.35735900       0.06934800       0.11846800
H        2.18826000       1.44004000       4.18342000       0.27547500       0.29141400       0.05983600
H       -1.67291000       1.52214000       5.02025000      -0.00013500      -0.26488100      -0.00426700
H        4.61399000      -3.03005000       4.14518000      -0.27255800       0.03801200      -0.32224400
H       -2.33608000      10.63014000       2.94959000      -0.06436800       0.16939400       0.51034300
H        1.46045000       2.10562000       1.47118000       0.26701800      -0.16151900      -0.16495300
H       -0.11676000       1.83034000       1.40939000       0.26921100      -0.11029000       0.00827800
H       -2.10915000       4.38414000       2.57867000      -0.04922600      -0.64372700       0.02613600
H       -2.29293000       3.01784000       1.81855000      -0.09176900       0.18751600      -0.33064600
H       -1.31061000       2.47229000       3.83602000      -0.01348400       0.23292000      -0.00585200
H        0.64328000       1.18848000       4.26593000      -0.59053800       0.18955000       0.08674100
H       -0.17932000      -6.46428000      10.26339000       0.51041900      -0.30704600      -0.68789400
H        0.35211000      -0.64114000       1.87799000      -0.13393800      -0.15837000      -0.22491100
H        3.38853000       0.74513000       1.82299000      -0.50170400       0.51968900      -0.59685500
H        3.73171000       1.73431000       0.65331000      -0.03846700       0.32455200      -0.07881000
H       -3.92602000       3.21315000       5.18897000      -0.12909100      -0.24911900      -0.55224100
H       -3.74508000       3.10461000       3.63322000      -0.12869400      -0.16104100       0.25178100
H       -1.16907000      -5.23166000      10.40465000       0.17096900      -0.05471300      -0.16757300
H       -1.64256000      -4.86658000       8.11236000      -0.05894100      -0.17991300      -0.18012900
H        1.20832000      -5.54021000       8.41723000      -0.11126500       0.12553800       0.29858300
H        1.37307000      -4.29199000       9.38533000      -0.12734800      -0.08801100      -0.09327600
H       -2.90386000      -0.35865000       6.06570000      -0.08790000       0.47835300      -0.19264400
H       -3.72301000       0.99962000       6.23506000       0.05128800      -0.23223300      -0.01258500
H       -4.76398000      -4.24242000       7.38921000       0.14474600       0.05001200      -0.15142800
H       10.52928000      -4.43908000       5.85029000       0.11191800       0.44148500       0.47006100
H       -0.81879000      -3.08006000       9.59604000      -0.29133400      -0.20850900      -0.04002000
H       -4.63259000      -3.07087000      10.41318000      -0.07433000      -0.08899300       0.02167300
H        1.80928000      -7.57408000       9.31942000      -0.30748600       0.00613900      -0.07969600
H       -5.27072000       6.12762000       8.25391000      -0.04379900      -0.29579800      -0.18232000
H       -1.62455000      -2.30991000       6.77920000      -0.05089200       0.10167900       0.02650800
H       -3.14356000      -2.64514000       6.79573000      -0.21054100       0.15094300       0.14403700
H       -5.14643000      -0.16025000       8.08300000       0.15696600       0.47587800       0.02926900
H       -5.40016000      -1.45090000       7.28207000       0.15659900      -0.08540100       0.03310800
H       -4.37525000      -1.90978000       9.35917000       0.35801700      -0.52467900       0.13412400
H       -2.39089000      -3.42980000       9.53526000       0.21475200       0.17439600       0.11092800
H        2.58578000      -2.17086000       4.92895000       0.25822900       0.01974600      -0.16125900
H       -2.77779000      -5.04365000       7.02377000       0.44002300      -0.25310200       0.33958100
H        0.24531000      -3.79037000       7.19550000      -0.16017200       0.47112400      -0.48611300
H        0.59029000      -2.72620000       6.06835000       0.51701200       0.27602600      -0.12397800
H       -1.13614000       7.63595000       0.08602000       0.15292800      -0.08528600       0.38959200
H       -6.81802000      -1.44437000       9.17221000      -0.14908200      -0.13988000       0.03545700
H        1.73422000      -0.85406000       5.11864000       0.29291000      -0.42995100       0.24604500
H       -1.60663000       6.54079000       2.82192000       0.14849500       0.06969400      -0.21827100
H        1.16682000       5.94267000       3.04446000      -0.23426800      -0.33593900       0.20863000
H        1.33716000       7.14615000       4.02967000      -0.01651700      -0.03209000       0.45886000
H       -2.80524000      11.11743000       0.72824000      -0.06283900      -0.15863900       0.28836900
H       -3.51925000      12.47353000       1.11800000      -0.29015100      -0.21633900      -0.13458600
H       -4.70558000       7.16826000       2.28490000       0.49951400       0.07773800      -0.50588100
H       10.61188000       7.03044000       0.73606000       0.21677600       0.30556600       0.33102400
H       -0.88584000       8.38339000       4.17622000       0.04089300      -0.22097400       0.13442100
H       -4.57663000       8.34782000       5.12467000      -0.14066900       0.31938800      -0.28439500
H        1.63475000       3.91435000       3.87646000       0.28709600      -0.31932200       0.05820200
H        0.57305000       3.62405000       2.78688000      -0.07466800      -0.41077700      -0.21580200
H       -1.58520000       9.31436000       1.54240000       0.22896200      -0.39204800      -0.06727200
H       -3.09364000       8.86706000       1.58312000      -0.28856500      -0.47745700       0.04274500
H       -5.06672000      11.19938000       2.65609000      -0.09986200      -0.03933100       0.46183200
H       -5.26755000       9.94277000       1.84145000      -0.01264400      -0.48343000      -0.27219700
H       -4.34190000       9.42906000       3.93663000      -0.06876500      -0.22080100       0.24444900
H       -2.40573000       8.06786000       4.30068000       0.18767800      -0.32788900       0.10304700
H       -3.35505000       0.24827000      10.14311000      -0.16070500       0.51615800       0.07783000
H       -2.68332000       6.29185000       1.74356000      -0.33438100       0.34078000      -0.07818800
H        0.40152000       7.88128000       1.95476000       0.01293400       0.03024100      -0.11908200
H        0.62459000       8.91858000       0.73232000      -0.14325300      -0.34956600       0.44348600
H       -0.98209000      -3.92666000       5.14984000      -0.23016600      -0.07830900      -0.31523100
H       -6.79431000       9.87933000       3.58939000       0.06350800       0.10538600       0.07206600
H       -4.07275000       1.70493000      10.38235000       0.11732600      -0.01405100      -0.21242300
H       -4.44760000       2.08642000       8.20070000      -0.08402000      -0.27383400      -0.09887000
H       -1.89123000       1.38324000       8.43545000      -0.07278800      -0.15052300      -0.08770800
H       -1.59964000       2.57981000       9.31777000      -0.04192500       0.32563600       0.36498300
H       -5.86998000       6.54825000       5.99384000      -0.08787600       0.32060900      -0.09082700
H       -6.75180000       7.85132000       6.22531000       0.00674800       0.07732300       0.17016500
H       -7.65205000       2.75983000       7.51131000      -0.06906800       0.05209000       0.00447400
H        7.59299000       2.65633000       5.96595000      -0.03037600      -0.05126000      -0.34316600
H       -3.71471000       3.89617000       9.68488000       0.00141200      -0.11213800       0.01735900
H       -7.49075000       3.96055000      10.47239000      -0.80566800      -0.60514400       0.40305500
H       -1.32617000      -0.64690000       9.45529000      -0.91427300       0.14886700      -0.46016000
H       -2.31590000      -0.90739000       8.23754000      -0.25805200      -0.17382800       0.33938200
H       -4.50787000       4.70741000       6.70270000      -0.49533400       0.12192400       0.02303000
H       -6.06728000       4.30886000       6.82702000       0.58013100       0.60508700      -0.06939100
H       -8.10785000       6.76618000       7.96036000       0.11334900      -0.41383200      -0.02617400
H       -8.28412000       5.46070000       7.13068000       0.19268900      -0.05987300      -0.54378900
H       -7.16876000       4.87644000       9.25359000       0.15847900      -0.00916200       0.22021900
H       -5.25923000       3.56786000       9.71671000      -0.05866900      -0.04770300       0.03954700
H       -0.30419000       4.73254000       4.93591000       0.22806300       0.08366000      -0.47633900
H       -5.67268000       1.85201000       7.28852000      -0.00947700       0.03895000      -0.36726100
H       -2.62543000       3.33494000       7.05161000       0.35529100      -0.20944900       0.45588700
H       -2.24743000       4.47438000       5.97720000      -0.32662500      -0.49221300       0.25844300
H       -3.96586000      -8.31138000      10.47274000       0.26355600      -0.17621400       0.20331100
H       -9.62338000       5.36748000       8.96974000       0.40251500       0.03546200      -0.37188400
H       -0.99117000       6.18052000       4.97881000      -0.06073700       0.03272800       0.01424600
H        8.88460000      -0.43161000       2.87838000       0.24215000       0.33852300       0.23267300
H       11.67863000      -1.09889000       3.19229000      -0.02404700       0.03176400      -0.02928000
H       -3.29821000       0.21244000       3.99605000      -0.04589500       0.25565000       0.56361900
H        7.84744000       4.05562000       0.77213000      -0.14020700       0.10534600       0.16489500
H        6.97967000       5.39582000       0.88801000      -0.41905700       0.10843600       0.48412500
H        5.80394000       0.24761000       2.07943000      -0.25420000       0.07345800       0.61644000
H        6.03098000       0.23885000       0.58530000      -0.01240800       0.04836700      -0.45251400
H        9.71931000       1.35195000       4.33634000      -0.14445800      -0.24093600      -0.23059000
H        6.09859000       1.45868000       5.16166000      -0.61950500      -0.16298800       0.12401000
H       12.19832000      -3.10098000       4.16671000       0.25325200      -0.19333700      -0.05030800
H        5.13823000      10.57009000       3.11781000       0.15747700      -0.04366800       0.01610200
H        9.02575000       2.21810000       1.51058000       0.42614000      -0.24970100       0.03389400
H        7.48510000       1.87439000       1.57689000       0.29408200       0.33451400       0.09922900
H        5.37853000       4.27952000       2.72877000       0.21915500       0.03656800      -0.00624600
H        5.31816000       3.00149000       1.87189000       0.03283800       0.00787800       0.02042500
H        6.30424000       2.56594000       4.03708000       0.02118900      -0.14114300       0.02965800
H        8.18243000       1.04761000       4.39312000       0.35050700      -0.08727600      -0.19646700
H        7.28306000      -6.58303000      10.20487000      -0.38888700       0.23172700       0.05646600
H        7.79063000      -0.64194000       1.79887000       0.64235600      -0.24565600       0.18262200
H       10.88851000       0.74562000       1.95610000      -0.13556300       0.15904500      -0.18086000
H       11.25598000       1.75599000       0.78458000      -0.00904300       0.24508800      -0.05713900
H        3.54721000       3.07282000       5.10855000       0.40977500       0.11630400       0.43188200
H        3.83408000       2.96597000       3.58525000       0.03972000       0.04091100       0.18730800
H        6.39657000      -5.25401000      10.31350000       0.06638800      -0.08900000       0.08060000
H        6.03022000      -4.79373000       8.02815000       0.39815900       0.81822000       1.04640400
H        8.75631000      -5.56705000       8.37208000       0.02349300      -0.22546200      -0.13907300
H       -6.11685000      -4.31183000       9.23231000      -0.06829800       0.04706200      -0.45896100
H        5.00345000      -0.30887000       6.20827000      -0.17846500      -0.93367100       0.54384300
H        4.08551000       0.98514000       6.23330000      -0.58235300       0.09173500       0.70293100
H        2.60249000      -4.19097000       7.50532000       0.34282900       0.21282300      -0.08395800
H        2.84334000      -4.21051000       5.97143000       0.32237000       0.09633300       0.22346500
H        6.68473000      -3.06618000       9.60954000       0.20433100      -0.58685100       0.00794300
H        3.04786000      -3.04657000      10.42082000       0.18901500       0.15763900      -0.09536400
H        9.23949000      -7.61997000       9.30219000       0.38209000      -0.12384100       0.05158300
H        2.26979000       6.04449000       8.17675000       0.03009500       0.09097400       0.24701100
H        6.08551000      -2.38867000       6.93451000      -0.98719200       0.57717900       0.12430100
H        4.50636000      -2.61884000       6.97923000      -0.67714700      -0.42919100      -0.06519800
H        2.40829000      -0.11288000       8.08736000       0.11366700      -0.44786800       0.30295200
H        2.30718000      -1.35508000       7.22811000       0.09368100      -0.52050400       0.07821000
H        3.33359000      -1.90396000       9.37093000       0.07950900      -0.06507300      -0.11088700
H        5.22631000      -3.43762000       9.63538000      -0.74899400      -0.04934800      -0.05353900
H       10.13832000      -2.16323000       4.89617000      -0.01976800      -0.18737300       0.51755300
H        4.88669000      -5.02775000       7.05372000      -0.43388500       0.05617600      -0.12489300
H        7.95168000      -3.68995000       7.16422000       0.20161700      -0.58144500       0.67250300
H        8.19867000      -2.70647000       6.00966000      -0.18105700       0.29836400      -0.05788300
H        6.63234000       7.54654000       0.02958000       0.37825000       0.15894800       0.56119400
H        0.89294000      -1.55102000       9.06859000      -0.09968100       0.05330500       0.37858500
H        9.35920000      -0.85889000       5.06745000      -0.31928400      -0.00650900       0.36506900
H        5.91851000       6.60929000       2.75413000       0.12474700      -0.27043600      -0.09693100
H        8.75690000       5.94104000       3.22146000       0.01860400       0.29667400       0.14537300
H       -6.25421000       7.36448000       3.98944000       0.05979900      -0.67033300      -0.15397700
H        4.80177000      10.96910000       0.87177000       0.12647700      -0.64062900       0.13003800
H        3.94121000      12.23525000       0.94715000      -0.92125000       0.67504000       0.66254600
H        2.74884000       7.18318000       2.02146000       0.22958700       0.15407500       0.27857100
H        2.99902000       7.07572000       0.52108000       0.06922500       0.12155400      -0.08749600
H        6.68401000       8.27371000       4.27723000      -0.20265000       0.28238500      -0.00964800
H        2.83636000       8.27745000       5.22553000       0.49459900       0.04442000      -0.14997000
H        9.36102000       3.98078000       4.07494000      -0.29266600      -0.10561900      -0.20639400
H        8.28962000       3.64198000       2.99795000      -0.16017000      -0.19342600      -0.24380700
H        5.93550000       9.14278000       1.52070000       0.39913400      -0.44695800       0.07307900
H        4.37112000       8.78263000       1.56824000       0.39950100       0.08811500       0.00974600
H        2.45606000      11.11671000       2.80078000      -0.25666700      -0.36795300      -0.22107000
H        2.28051000       9.89573000       1.82281000      -0.18827200       0.21888900       0.61767700
H        3.19353000       9.29171000       4.08547000      -0.13896000       0.25813600      -0.47288100
H        5.08574000       8.01658000       4.34403000       0.20467600      -0.02474400       0.02850300
H        4.24625000       0.29388000      10.23363000       0.22124000      -0.07254100      -0.17384600
H        4.88879000       6.31232000       1.67002000      -0.05144100      -0.02642600      -0.11891600
H        7.91261000       7.71638000       1.95448000       0.04070100      -0.13920400       0.20264400
H        8.23035000       8.73314000       0.82345000       0.11339200       0.24961200      -0.14093800
H        6.45053000      -3.87611000       5.29354000       0.10928700       0.07587500      -0.75817000
H        0.72147000      10.01727000       3.68569000       0.54820400       0.04261400       0.02906600
H        3.38404000       1.59460000      10.50613000       0.11553700      -0.15518800      -0.07749600
H        2.98621000       2.12597000       8.19336000       0.26026600       0.11356100       0.23215300
H        5.85694000       1.50219000       8.50762000      -0.08463000      -0.05127600      -0.07538000
H       -9.18459000       2.78005000       9.34222000       0.00112900       0.36077300       0.18648200
H        1.81294000       6.46992000       6.09556000      -0.02404800      -0.21007200      -0.13412300
H        0.92435000       7.76185000       6.31262000      -0.06919200       0.09158900      -0.17493700
H       -0.25575000       2.61593000       7.40538000      -0.11814500       0.08459800       0.34530300
H       -0.00078000       2.60442000       5.89093000       0.14513800       0.07790600      -0.03602700
H        3.76372000       3.91083000       9.65501000      -0.29215800      -0.53573600      -0.14484200
H       -0.00847000       3.85469000      10.52149000       0.01406800      -0.16634300       0.00586100
H        6.24438000      -0.60580000       9.45217000      -0.64890600       0.25746300      -0.09730800
H        5.15602000      -0.78388000       8.37119000      -0.16521300      -0.38116000      -0.27836900
H        3.11610000       4.58540000       6.70549000      -0.84030700       0.12924600       0.10821700
H        1.52360000       4.27212000       6.85810000       0.02169400      -0.12669500      -0.11737000
H       -0.46677000       6.74411000       8.06918000       0.14241000       0.93333200      -0.02002300
H       -0.66074000       5.52038000       7.18338000       0.10879900      -0.11897500      -0.15618500
H        0.36498000       4.89908000       9.39292000      -0.00702800      -0.01405400      -0.03850800
H        2.19145000       3.53956000       9.62897000       0.64471000      -0.25774000       0.12754900
H        7.32109000       4.89938000       4.87776000       0.62043600      -0.57306500      -0.49079200
H        1.96907000       1.88576000       7.06715000       0.01541000      -0.18579600       0.02635600
H        4.95269000       3.16870000       7.10919000       0.16825200       0.12748300       0.11434800
H        5.33294000       4.21402000       5.96413000      -0.01357500      -0.03285400       0.06381300
H        9.61244000       0.62641000       0.08573000      -0.23495300      -0.00210300      -0.00198100
H       -2.02405000       5.50344000       9.16289000      -0.15428800      -0.16863700      -0.20270500
H        6.35853000       6.12508000       4.96153000       0.06892500      -0.52466700       0.58404900
O        2.95826000       1.29310000       1.08335000       0.70944800      -0.68015300       1.10764500
O        1.15070000      -1.07889000       2.26808000       0.07935800       0.86313100       0.49569900
O        1.50320000       0.73406000       4.20577000       0.21844700      -0.78580600      -0.04177300
O        4.42366000      -0.09616000       3.08307000       0.01524900       0.35833200      -0.49727300
O        0.00217000       4.96407000       0.30780000      -0.21088600      -0.37930400       0.51420600
O        3.79074000      -2.64258000       3.71973000       0.14232300      -0.08906700      -0.09994300
O       -0.90237000       1.92487000       4.55401000      -0.16174700      -0.00066400       0.09716600
O        0.58209000       2.53989000       1.44173000      -0.56528800       0.38387000       0.01319500
O       -2.29491000       3.39711000       2.72830000       0.22537100       0.52589100       0.41376400
O        5.01656000       2.86404000       0.19218000      -0.67530500       0.15277000       0.65986000
O       -1.02263000       0.38740000       1.39882000       0.02804400       0.27472500       0.93254000
O       -4.41394000       2.92339000       4.35544000       0.17538100       0.14555200       0.15215400
O       -0.14798000      -3.24933000       6.43905000      -0.21172300      -0.50268800       0.75104400
O       -1.95734000      -5.50433000       7.41211000      -0.38494000       0.34609800      -0.11395700
O       -1.48151000      -3.82388000       9.47859000      -0.04127100       0.23900400       0.09778600
O        1.26115000      -4.54752000       8.42320000      -0.02517200      -0.11470000      -0.43977200
O       -3.08183000       0.53073000       5.63744000       0.25557900      -0.34361500       0.41575000
O        0.95538000      -7.17653000       8.98693000       0.41990700       0.23437400       0.38617900
O       -3.90787000      -2.55376000       9.97661000      -0.07802800       0.30487400      -0.38014800
O       -2.51253000      -1.88725000       6.93315000       0.36454600      -0.21263500      -0.44143400
O       -5.32356000      -1.11904000       8.21204000      -0.41404500      -0.35625400      -0.07533100
O        1.98605000      -1.71275000       5.56245000      -0.65771100       0.72075800      -0.17833600
O       -4.09188000      -4.07561000       6.66611000      -0.01558800      -0.28747100      -0.11304700
O       -7.51995000      -1.63544000       9.85548000       0.17445300       0.30728000      -0.62794800
O       -0.06573000       8.39479000       1.24712000      -0.03850300       0.42808500      -0.34626000
O       -1.79495000       5.96341000       2.03414000       0.40115000      -0.43158600       0.42049900
O       -1.51424000       7.61262000       4.21018000      -0.25531000       0.64668300      -0.15821800
O        1.33281000       6.90700000       3.07939000       0.10356100       0.24420900      -0.94955100
O       -2.99293000      12.02761000       0.40686000       0.39217000       0.19919000      -0.05479600
O        0.76758000       4.21848000       3.53987000       0.00308400       0.74562200       0.40215500
O       -3.89862000       8.91981000       4.67931000       0.17436900      -0.25070700      -0.04555100
O       -2.50708000       9.64926000       1.61161000       0.25457500       0.47102900      -0.11193800
O       -5.26921000      10.22804000       2.78640000       0.11694000       0.48081300       0.21629300
O        1.97597000       9.76487000       0.14566000       0.01241000      -0.59018300       0.23076500
O       -3.97823000       7.26394000       1.57734000      -0.94371800      -0.03158100       0.06003300
O       -7.44986000       9.75791000       4.32377000       0.10627700      -0.04500800       0.32394500
O       -2.99196000       3.89325000       6.34545000       0.14385300       0.77748000      -0.36476200
O       -4.80346000       1.43483000       7.53363000       0.11399600       0.38986400       0.30115400
O       -4.36754000       3.14646000       9.63233000       0.07528100       0.28100900      -0.14625800
O       -1.71198000       2.35030000       8.36841000       0.02405800      -0.27189900      -0.44702700
O       -6.05958000       7.46357000       5.63324000       0.30953800      -0.35521000       0.23782800
O       -2.21218000      -0.34884000       9.06074000       1.39584500       0.02186200       0.25549900
O       -6.75144000       4.39249000      10.02090000       0.41770800       0.57254700      -0.95419000
O       -5.42318000       5.09680000       6.81610000      -0.09609500      -0.76144200       0.01081000
O       -8.14263000       5.76462000       8.04932000      -0.19301400       0.46365900       0.75488700
O       -0.86021000       5.33125000       5.47102000      -0.44010500      -0.14136100       0.49073500
O       -6.97911000       2.83616000       6.78583000       0.35071500       0.28198100       0.72500000
O      -10.30596000       5.21284000       9.65464000      -0.82625200       0.20655700      -0.01332800
O       10.49152000       1.31875000       1.22992000       0.30437100      -0.23016700       0.42796400
O        8.63784000      -1.05315000       2.16327000      -0.69673500      -0.28497700      -0.59812000
O        9.06416000       0.61009000       4.20870000      -0.18108400       0.67034000       0.48633500
O       11.79481000      -0.11983000       3.07618000       0.21698400      -0.12872300      -0.82497100
O        7.65293000       4.93657000       0.35114000       0.61549000      -0.21988100      -0.33639200
O       11.37361000      -2.68336000       3.81659000      -0.46753000       0.11221200      -0.15649900
O        6.76338000       2.04565000       4.75125000       0.39502500       0.02873200      -0.42838000
O        8.14918000       2.62219000       1.67373000      -0.73498300      -0.17301000      -0.25568800
O        5.33268000       3.29426000       2.82432000      -0.13258200       0.15970200      -0.08266700
O       12.51081000       2.84318000       0.15692000       0.38776400      -0.58419100      -0.30947000
O        6.49652000       0.47525000       1.42154000       0.38206900       0.03618100       0.08726100
O        3.10942000       2.86916000       4.26230000      -0.45851000      -0.12280700      -0.64851400
O        7.46484000      -3.16791000       6.50427000      -0.02248200       0.28880200      -0.48712600
O        5.72005000      -5.42872000       7.38000000      -0.30108800      -1.04680800      -0.96678400
O        6.09408000      -3.87237000       9.50059000       0.53474100       0.87623800       0.10344900
O        8.95462000      -4.60426000       8.26578000      -0.10001400       0.16207400       0.78781000
O        4.74774000       0.49034000       5.73205000       0.67627700       0.63975100      -1.16782000
O        8.43281000      -7.21607000       8.91962000      -0.31590300       0.05411400      -0.14014200
O        3.78054000      -2.48250000      10.04089000      -0.30643600      -0.39261500       0.19422700
O        5.17840000      -1.92326000       7.06160000       1.51783200       0.14170500      -0.14640000
O        2.33577000      -1.11241000       8.19253000      -0.09570000       0.90405400      -0.43657800
O        9.46809000      -1.74619000       5.51409000       0.39813500       0.26185100      -0.74684100
O        3.31013000      -3.97636000       6.82451000      -0.02150400      -0.35561600      -0.09438100
O        0.23543000      -1.69499000       9.80718000      -0.72950900      -0.20520400      -1.20240700
O        7.47656000       8.27861000       1.26704000      -0.20266000       0.07115400       0.00551500
O        5.73238000       5.94275000       2.03563000      -0.17435200       0.16395800       0.31010600
O        5.97387000       7.58710000       4.22096000       0.05823100      -0.35354500      -0.11085900
O        8.91457000       6.92431000       3.08953000      -0.07132900       0.12896400      -0.20000600
O        4.61053000      11.80986000       0.40394000       0.76078300       0.11988200      -0.74021800
O        8.50820000       4.32285000       3.67353000       0.37784500       0.48475600       0.61426200
O        3.61545000       8.75954000       4.79016000      -0.44782000      -0.37803300       0.18636800
O        5.04923000       9.50764000       1.70949000      -0.67791000       0.28435800       0.00833100
O        2.20540000      10.14830000       2.80128000       0.49397000       0.37266800      -0.36951800
O        9.52720000       9.67133000       0.27287000      -0.32087000       0.45104300      -0.23339500
O        3.47399000       7.34027000       1.36297000      -0.24561300      -0.15535900       0.12119900
O        0.06140000       9.91865000       4.40738000      -0.62981700      -0.37623200       0.63753500
O        4.57907000       3.71299000       6.37727000      -0.22093800       0.17076100      -0.05825400
O        2.78559000       1.48669000       7.46573000      -0.31428900       0.04490200      -0.33916600
O        3.11323000       3.14077000       9.56933000      -0.30581500       0.42795600       0.11052600
O        6.00766000       2.47537000       8.40797000      -0.14856100      -0.43575200      -0.21727700
O        1.56335000       7.33405000       5.68022000       0.02978500       0.30465300       0.33288900