384
Lattice="15.19912 0.0 0.0 0.081707137 14.383137923 0.0 -0.180191647 0.057245452 17.674728809" Properties=species:S:1:pos:R:3:REF_forces:R:3 REF_energy=-1899.2347332 REF_stress="0.001437182374344131 7.327531713786945e-05 -1.1022505116309833e-05 7.327531713786945e-05 0.00229020318506947 0.0001941983149427317 -1.1022505116309833e-05 0.0001941983149427317 0.0013963316971152247" REF_free_energy=-1899.2347332 pbc="T T T"
H        1.23266000       2.78223000       3.30622000       0.06853600       0.75282200       0.36974600
H        1.67611000       1.52273000       4.22786000       0.08475100       0.03096900      -0.13208100
H        4.96577000       3.39145000       1.00384000       0.44281600       0.41078300       0.04107900
H        4.03108000       4.66546000       1.05914000       0.82014700       0.17621000      -0.08369800
H        6.29269000       6.39599000       3.22594000      -0.15921500      -0.20826700       0.11860600
H        5.65676000       5.08932000       2.46073000       0.43399200       0.11554800       0.39786400
H        5.42725000       4.85711000       4.66070000       0.32739200       0.30197400      -0.50682600
H        5.00227000       3.56231000       5.43998000      -0.07500000       0.18601100       0.06570900
H        2.04423000       1.18305000       6.32657000       0.44171400      -0.29947000      -0.11754000
H        2.64812000      14.23450000       5.53791000      -0.24253000       0.35102500       0.05083500
H        3.41687000       5.17519000       5.47614000       0.87647900      -0.52895200       0.42491900
H        2.06028000       5.01893000       6.35298000       0.24811400      -0.07159500       0.32194700
H        5.48253000       1.28225000       0.22809000       0.28736700      -0.13554900      -0.38563000
H        5.45971000       1.27067000       1.84509000       0.30392000       0.16991500      -0.44276400
H        5.45794000       1.49212000       6.09798000       0.08659200      -0.03287800       0.24018200
H        4.08974000       1.45081000       5.31439000       0.11412700       0.20235800       0.17420300
H        1.30429000       3.38269000       7.76717000      -0.02932400       0.77571800      -0.16073300
H        1.71852000       4.69669000       8.60670000       0.13594100       0.05805600      -0.25383200
H        0.33587000       4.81003000       3.43882000       0.10682800       0.13759100      -0.04941900
H        1.77734000       4.73291000       4.18522000      -0.26039700       0.31560000       0.21084300
H        2.01113000       5.06850000       1.99144000       0.32619900       0.03300000      -0.49842000
H        1.99616000       4.88127000       0.36757000       0.53645000       0.59662200       0.57575000
H        2.10163000       1.28544000       1.98224000      -0.34234900      -0.21357500       0.12620300
H        3.43638000       1.10573000       1.16111000      -0.43634000      -0.02360000      -0.28401100
H        5.87893000       1.20855000       3.97090000       0.37269700      -0.29917600      -0.14478000
H        7.26756000       1.19257000       3.17447000       0.86464400       0.33956400      -0.02100900
H        5.80474000       1.34187000       8.38068000       0.10853500      -0.13890200      -0.31942400
H        6.24205000      14.36350000       7.66884000       0.14026400       0.36009700      -0.33453400
H        6.36515000       6.36366000       7.68966000      -0.08991100      -0.19233800      -0.13672500
H        5.93707000       5.07405000       6.77399000       0.27101500       0.30635500       0.63362300
H        0.30882000       1.44397000       7.65866000       0.25738500       0.00296800       0.47185100
H        1.68068000       1.46271000       8.55684000       0.00116000      -0.48349700       0.09118100
H        9.40914000       1.45864000       3.86296000      -0.05870400      -0.00822400      -0.20362200
H        8.92702000       2.80663000       3.14458000      -0.16479700      -0.52765400      -0.17390500
H       11.68180000       4.86093000       1.15599000      -0.06608500      -0.00495700      -0.20833300
H       12.71280000       3.62513000       1.15223000      -0.09846700      -0.21023500      -0.15043000
H       13.42930000       5.27480000       2.47215000       0.13846200      -0.38341900       0.01714800
H       13.49060000       5.10436000       4.07430000       0.05363300      -0.01261100      -0.45634000
H       13.27250000       4.69914000       6.14884000      -0.31114400      -0.36084900      -0.12867500
H       12.77980000       3.35158000       5.39112000       0.01722100       0.39614900      -0.12412100
H        9.57053000       1.20040000       6.01588000      -0.44123900      -0.12749200       0.68928300
H       10.20270000      14.24340000       5.26615000      -0.27660100       0.64377400       0.42046900
H       11.20800000       4.95579000       5.46974000      -0.38704200       0.20619400      -0.33855500
H       10.15170000       6.21737000       5.28076000       0.38002900      -0.81526000       0.43957300
H       13.26680000       1.54653000       1.80081000       0.05841300      -0.34271400       0.30063900
H       13.27790000       1.59190000       0.19445000      -0.00126800       0.14177900       0.19287900
H       13.02320000       1.29409000       4.58291000      -0.00816900       0.63759300       0.51811500
H       11.64830000       1.54849000       5.36388000       0.53045500      -0.22106000       0.13142400
H        8.09727000       4.75003000       7.70990000       0.50606600      -0.23628800       0.16645700
H        9.53214000       4.69534000       7.00948000      -0.49477400      -0.26793000       0.54828100
H        7.76057000       4.84778000       3.17640000       0.82008900      -0.36121200       0.30392500
H        9.13716000       4.72575000       4.10159000      -0.25283400      -0.04767600      -0.84210000
H        9.63583000       5.09412000       1.89398000      -0.33111800      -0.13177900       0.32468000
H        9.73297000       4.94084000       0.33224000      -0.45417200      -0.25541100      -0.61482200
H       11.23810000       1.40696000       0.80655000      -1.47924000      -0.10737900       0.39237800
H        9.70665000       1.41880000       1.57819000       0.91491200      -0.14355400      -0.34400800
H       13.97410000      14.23560000       3.24902000       0.26583900       0.53791200      -0.23944200
H       14.86060000       1.21068000       3.23072000      -0.50468100      -0.49143000       0.21596600
H       13.37510000       1.24200000       8.48821000      -0.23823200       0.17364900       0.31559500
H       13.46790000       1.16782000       6.88913000      -0.18301100       0.09980900       0.11718600
H       13.31280000       4.81250000       8.44754000       0.10894300       0.05471000       0.28442100
H       14.82840000       4.90859000       7.87519000      -0.48034600      -0.01769600      -0.27844400
H        8.82155000       2.73857000       7.57566000       0.01639800       0.26822100       0.06697900
H        7.79199000       1.52257000       7.50684000      -0.44435200      -0.22610400      -0.08404400
H        0.29840000       8.66171000       3.29700000       0.12506500       0.27478500      -0.06720600
H        1.19369000       9.98831000       3.29847000      -0.01643500       0.83279900       0.00435000
H        5.62158000      11.96910000       0.39550000      -0.00269000      -0.30017400      -0.07954600
H        5.57720000      12.00750000       2.00203000      -0.04815600      -0.32932700      -0.39675400
H        7.33124000      12.15790000       3.18268000       0.47256400      -0.20336800      -0.00249000
H        6.47845000      13.49260000       3.22556000      -0.17336500      -0.92549700       0.11436300
H        5.49803000      11.86310000       4.62155000       0.09632200      -0.01842500      -0.13470000
H        4.98098000      10.58150000       5.45390000      -0.01624900       0.15717800      -0.06604200
H        2.46389000       7.11619000       5.49731000      -0.02013900       0.83598400      -0.09906000
H        1.98211000       8.48750000       4.67351000       0.74926200      -0.50048600       0.70596100
H        3.44783000      12.13950000       5.43033000      -0.38957300       0.24189100       0.26004500
H        2.05051000      12.18380000       4.66491000       0.04050700       0.35268900       0.76670200
H        5.15113000       9.96024000       1.26852000      -0.51730500      -0.77328500      -0.17396500
H        4.16877000       8.60431000       1.27866000      -0.27425900       0.27890400      -0.15162100
H        4.08258000       8.49603000       5.44855000      -0.14251100       0.25692200       0.24518700
H        5.53201000       8.62493000       4.83116000       0.06866800      -0.11843900      -0.03443900
H        0.47253000      11.99020000       7.72841000      -0.51548800      -0.02103000       0.31923600
H        1.82762000      11.94980000       6.94376000      -0.44846000      -0.66697500       1.35066900
H        0.30581000      12.07710000       3.30604000       0.94861500      -0.41100300       0.16360900
H        1.75145000      12.09160000       2.57417000       0.05891300      -0.22748800      -0.05018300
H        2.58895000      13.55860000       1.19084000       0.37505500      -0.47827800      -0.05487100
H        3.55411000      12.20000000       1.06810000       0.00564400       0.33064400       0.34623200
H        2.53886000       7.01594000       1.11183000      -0.06748800      -0.17045700       0.11146700
H        2.03295000       8.35464000       1.89694000       0.65490600      -0.43852300      -0.80787200
H        5.97029000       8.34854000       2.55068000      -0.46638900       0.24413900      -0.46342900
H        7.37342000       8.40669000       3.26219000      -0.56029900      -0.54742400       0.15002900
H        5.77570000       8.28078000       6.98771000      -0.04285700       0.22967700       0.17540200
H        7.14211000       8.31688000       7.86583000      -0.53004000      -0.09121000      -0.30512700
H        5.83677000      12.18990000       8.45867000      -0.22999700       0.14938800       0.23056800
H        5.78274000      12.14710000       6.88238000       0.03951700       0.35816200       0.05930800
H        1.22401000       9.82489000       7.79152000       0.13967500       0.65873300      -0.18921000
H        1.74550000       8.64162000       6.82958000      -0.18266600       0.18594000       0.51695400
H        9.42919000       8.75859000       2.33584000      -0.07815700      -0.26778300       0.08442900
H        8.91590000       9.97960000       3.23816000       0.28190200      -1.10529800      -0.15409500
H       12.61810000      10.69100000       0.97513000      -0.01411300      -0.00477600       0.03492900
H       13.04860000      12.05900000       0.25702000       0.31035900      -0.24336200      -0.06075500
H       13.50660000      12.19610000       2.47130000      -0.76999200      -0.49287400      -0.80274500
H       13.40170000      12.26910000       4.08190000      -0.17005700      -0.33402100      -0.00625500
H       12.55160000      10.65230000       5.54829000       0.29930700       0.86655400      -0.03782600
H       13.06640000      11.99830000       6.32034000      -0.27274900      -0.38353900      -0.78787700
H       10.96180000       8.37747000       5.40699000      -0.38225600      -0.38039700       0.31833700
H        9.62696000       8.44237000       4.64160000      -0.37919700      -0.05117800      -0.69098500
H        9.65801000      12.08430000       6.24566000      -0.23901600       0.09609100      -0.17809600
H       11.04580000      12.18580000       5.52596000       0.78246100      -0.25521200      -0.15282700
H       11.64600000       8.55196000       0.90607000      -0.40148300       0.03255000       0.04061900
H       13.10290000       8.63234000       0.24928000      -0.21238500       0.08253400       0.02488500
H       13.14750000       8.55699000       6.29227000      -0.24553500       0.10878100      -0.05245700
H       13.19390000       8.81637000       4.71313000      -0.68092200      -0.14291700       0.56890100
H        8.80436000      10.48650000       7.69307000      -0.19661000       0.42908500      -0.25409800
H        7.88767000      11.82500000       7.63519000       0.11520200      -0.00412200      -0.08498300
H        9.47936000      12.01070000       3.99289000      -0.27514400      -0.19549300      -0.03420300
H        9.46152000      12.06250000       2.42063000       0.44924700       0.46962700      -1.12799600
H       10.34870000      13.71720000       0.89056000      -0.11331200       0.03451800       0.02046300
H       11.16170000      12.35820000       1.07946000      -0.17639900       0.00849500      -0.29514200
H        9.65221000       8.46384000       0.05501000       0.18085400      -0.10414500       0.58042200
H       10.04250000       7.11333000       0.91323000      -0.05619400       0.95266800       0.02712200
H       13.91200000       7.15448000       3.21347000       0.01031200       0.83230700       0.07869200
H       13.47220000       8.47191000       2.37367000      -0.19734100      -0.05347200       0.09268400
H       14.75710000       8.09899000       7.73481000       0.73203000       0.07343900      -0.02994400
H       13.76820000       6.79906000       7.63219000       0.46054800       0.84043200       0.12741000
H       13.93820000      13.50190000       7.79703000      -0.09621200       0.17678500       0.22276900
H       13.46540000      12.12210000       8.54801000       0.31129900       0.43802200      -0.35247300
H        9.25748000       8.54326000       8.51539000      -0.33919400      -0.08297300      -0.58175100
H        9.16853000       8.50424000       6.80573000      -0.52665600       0.36630200       1.69578900
H        1.10348000       2.67060000      11.98180000       0.09078800      -0.92756900       0.24064100
H        0.16341000       1.37675000      12.05970000       0.41537600       0.10940100      -0.27338800
H        5.64490000       4.75366000      10.66630000       0.48565100       0.46328800       0.38295500
H        5.52089000       4.88214000       9.01720000       0.28268300      -0.32908900       0.67656900
H        6.21918000       6.33320000      12.15980000       0.40815900      -0.37396100      -0.17887800
H        5.68131000       5.08431000      12.90790000       0.27332900      -0.35171000       0.16824900
H        5.27078000       4.70040000      15.20300000      -0.55492700       0.17305100      -0.89110600
H        4.92908000       3.49392000      14.26660000      -0.41163800      -0.40976600      -0.21259900
H        2.03900000       1.14995000      15.22530000      -0.45968600       0.35912500       0.32841700
H        1.89015000       1.09273000      13.61360000      -0.09987700       0.34607900      -0.03763500
H        3.26492000       5.06978000      14.22700000      -0.07643800      -0.12753200       0.23408700
H        1.83575000       5.01476000      13.50360000       0.08972800       0.21297600       0.31963900
H        5.03848000       2.81456000       9.84496000       0.26851700      -0.85747200      -0.07211400
H        5.45857000       1.43667000      10.60870000       0.17088400       0.11484300      -0.21205100
H        5.32694000       1.46383000      13.30340000       0.68714500       0.03926300      -0.17695400
H        4.08220000       1.34047000      14.23670000       0.44055500       0.90442200       0.00116500
H        1.08054000       3.45309000      16.57490000       0.47338400       0.43456400       0.04867300
H        1.70178000       4.77953000      15.86710000      -0.00879500      -0.07668600      -0.34965600
H        0.16707000       4.72134000      12.12560000       0.50337200       0.12074000       0.02569700
H        1.63530000       4.81473000      11.44800000      -0.03229700       0.06798700      -0.31802500
H        3.47074000       4.92607000      10.00230000      -0.79796800       0.56472000      -0.12232000
H        2.56052000       6.27364000       9.97100000       0.01579900       0.13778700       0.02845400
H        2.12030000       1.09944000      10.66280000      -0.20294700       0.05672300       0.08531700
H        3.47195000       1.27195000       9.83415000      -0.17330100      -0.54845000      -0.02455000
H        7.30164000       1.14049000      12.08800000      -0.87931700      -0.00967100      -0.29259900
H        6.43341000      14.23430000      12.15310000      -0.10042800       0.70733400      -0.27500800
H        7.01036000       1.06630000      16.41600000      -0.41677100      -0.13259100      -0.05279700
H        5.70709000       1.25298000      15.55440000      -0.11290800      -0.10777700      -0.05712900
H        6.33056000       6.26714000      16.53020000      -0.09637900       0.08439400       0.14338200
H        5.73602000       5.07657000      17.42680000       0.22941100      -0.00512200      -0.74229300
H        1.59570000       1.36015000      17.47360000      -0.14118300       0.00763700       0.16827200
H        0.29432000       1.31635000      16.48570000       0.12340900       0.23547400       0.33789400
H        8.80995000       2.69766000      11.88340000       0.00936000       0.07953700       0.11677200
H        9.23237000       1.37729000      11.07830000      -0.00332300      -0.10960300      -0.27005800
H       12.97010000       4.58872000      10.75650000      -0.13542900       0.29785100      -0.26079100
H       11.56610000       4.69960000       9.99927000       0.03950400       0.41467300       0.03852900
H       13.78630000       6.32619000      12.03400000      -0.21038300      -0.68669900       0.10722300
H       13.34430000       5.08930000      13.00060000       0.40205900       0.08269800      -0.98459500
H       12.95480000       4.92623000      15.23030000       0.09940800      -0.63669100      -0.65869200
H       11.64550000       4.70216000      14.30120000       0.98003300      -0.14692700       0.18032500
H       10.03850000      14.20140000      14.08450000       0.13901900      -0.05864700       0.02016200
H        9.56616000       1.15989000      13.31060000       0.01890500      -0.07676100       0.06799800
H        9.55052000       4.94400000      15.11130000       0.02039300      -0.06321200      -0.16080000
H        9.50346000       4.99371000      13.50400000       0.33954400      -0.01391700       0.37793300
H       12.91840000       1.42729000      10.68940000       0.00967300       0.08576500       0.04529800
H       12.39330000       2.72530000       9.80485000       0.38869200      -1.09670700       0.35082600
H       11.50520000       1.52304000      14.20700000       0.50401200      -0.15489500       0.07341100
H       12.57140000       2.75913000      14.30530000      -0.08689500      -0.35060800       0.02424700
H        8.69077000       3.29298000      16.51220000       0.05160300       0.88525200      -0.46618100
H        7.75069000       4.60277000      16.38350000       0.88966200      -0.12610000       0.29172900
H        9.29634000       4.76881000      11.39160000       0.35459800       0.29697700      -0.76997600
H        7.91356000       4.70562000      12.10750000      -0.58419500       0.15970700       0.13159600
H        9.71975000       4.96812000       9.17723000      -0.41140600       0.08179900      -0.26038200
H        9.98215000       6.35707000       9.92618000       0.02976600       0.59038000      -0.11314000
H        9.49758000       1.06840000       8.78127000       0.61903000      -0.23080400       1.02950900
H       10.86800000       1.10407000       9.69595000       0.29697200       0.19088100      -0.15591800
H       13.84380000      14.24070000      12.00340000      -0.16607400       0.18474600      -0.02311500
H       13.27330000       1.14235000      12.86840000       0.16888400      -0.18097600      -0.75673800
H       13.27440000       1.26635000      15.60850000       0.46768300       0.01493400       0.61524500
H       13.75710000      14.41130000      16.48720000       0.16072800      -0.05940000       0.09053000
H       13.32210000       5.10345000      17.37890000       0.46774600       0.44098000      -0.48981300
H       14.77780000       5.10109000      16.64440000      -0.21394500       0.05697900      -0.07634200
H        9.14073000       1.31893000      15.59250000      -0.34509100       0.20782900      -0.16781400
H        9.17467000       1.39008000      17.16140000      -0.39615200       0.31740700      -0.36012300
H        1.68146000       8.55137000      12.96830000      -0.02464000      -0.15389000       0.20695100
H        1.13858000       9.82138000      12.21110000       0.05315100       0.37729400      -0.02281400
H        4.11764000      12.02490000       9.89471000       0.39822900      -0.39625700       0.05280700
H        5.03386000      10.69990000       9.83441000      -0.20483200       0.20557400       0.21709600
H        7.41452000      12.14930000      11.95010000       0.25127500      -0.28143500       0.18398500
H        5.94419000      12.13940000      11.35850000       0.59101600       0.40516300       0.58121200
H        5.50117000      11.82860000      13.50180000       0.11855900      -0.24702000      -0.19834400
H        5.40095000      11.88530000      15.05200000      -0.35744300      -0.75495500      -0.41981600
H        2.00491000       8.36272000      15.13260000       0.32054800      -0.33281000      -0.77058300
H        2.37247000       6.97268000      14.31640000      -0.12295700       0.06222200       0.03084900
H        3.46380000      12.20650000      14.36160000      -0.71663200       0.00873600       0.24087400
H        2.51980000      13.50250000      14.41470000      -0.01152200       0.13283800       0.15660700
H        5.47225000       8.61494000       9.19659000      -0.32954800      -0.53702700      -0.52366600
H        4.07191000       8.49547000      10.11160000       0.74519200       0.33552900      -0.70177600
H        4.06382000       8.31582000      14.45090000       0.51240700       0.45162500      -0.16701200
H        4.92694000       9.65038000      14.38150000       0.10813300       0.23285500      -0.01140400
H        1.67875000      11.99950000      15.97090000      -0.37423800      -0.22902500       0.36048000
H        1.56806000      12.03330000      17.54010000       0.04063400       0.05981300       0.19617900
H        1.74901000      11.95190000      11.52480000       0.14274700       0.03857400      -0.01628000
H        1.67742000      11.89660000      13.16700000      -0.29317000      -0.04207500      -0.93239600
H        2.05287000      12.14910000       9.21924000       0.02500400       0.08014200       0.15872800
H        2.53116000      13.46680000      10.03380000       0.01599200      -1.12343500      -0.12406600
H        1.99468000       8.29123000       9.15092000       0.13426000       0.01252500       0.66000100
H        1.95710000       8.33559000      10.83100000      -0.12189400      -0.03086800      -0.55097200
H        5.62818000       8.24154000      12.87950000       0.00072300       0.33363900       0.43371300
H        5.78041000       8.36947000      11.25210000      -0.17983300      -0.17520300       0.49279000
H        5.73187000       8.29357000      15.86820000       0.15239900       0.21051200      -0.19750000
H        5.85312000       8.44915000      17.41890000      -0.50042300       0.28286700       0.88904500
H        5.96921000      13.44540000      16.49830000       0.24686400      -0.42056000       0.04195500
H        7.10003000      12.35190000      16.54580000      -0.01565400      -0.17843800      -0.01093900
H        1.80057000       8.63028000      17.30780000      -0.69463800       0.35680600      -0.55157300
H        1.15889000       9.95638000      16.68980000       0.15659000       0.28648400      -0.21678700
H        9.21758000       8.43977000      12.83480000      -0.69454100       0.10072100      -0.08008000
H        7.70459000       8.55070000      12.04850000       0.92890500      -0.03690200       0.64064600
H       12.60170000      10.45460000       9.89692000      -0.09900900       0.18587700      -0.12942600
H       11.68270000      11.78900000       9.81591000       0.84011400      -0.26817100       0.17998400
H       14.87030000      12.29540000      12.10170000      -0.22432200      -0.13917600       0.06798700
H       13.51290000      12.16520000      11.22680000       0.15798300       0.17638100       0.47795000
H       13.01090000      12.07500000      13.46000000       0.58227000       0.15414500      -0.51277600
H       11.69260000      12.06450000      14.29290000       0.32487400      -0.27617700       0.00473800
H       10.05010000       6.97733000      14.33450000      -0.21360200       0.14307200      -0.13819100
H       10.93880000       8.28597000      14.25600000      -0.18768500       0.05777300      -0.10116500
H        9.62335000      12.15810000      13.31370000      -0.10244400      -0.38942200      -0.04787900
H        9.48149000      12.26460000      14.95430000       0.42869900       0.35305900      -0.79864000
H       12.87570000       8.39051000       9.05807000       0.40377600      -0.08056900      -0.01535200
H       12.95090000       8.54375000      10.68010000      -0.19211500      -0.26058000      -0.49203100
H       12.59500000       9.94192000      14.27640000       0.06793300      -0.36570900       0.11726200
H       13.10970000       8.64085000      15.12740000      -0.56038900       0.42861100      -0.75214200
H        9.28393000      12.29450000      17.15310000      -0.32928000      -0.40894900      -0.31192200
H        8.77975000      10.97610000      16.34120000       0.05121000      -0.12900000       0.27633400
H        8.96465000      10.40700000      11.88690000      -0.13099900      -0.23378200       0.26867900
H        9.54957000      11.69420000      11.13240000      -0.17323100       0.19564700      -0.19365800
H       10.21250000      13.47510000       9.77562000      -0.48575300      -0.70418500      -0.24161600
H        9.70072000      12.17940000       8.89676000       0.05922200       0.25055600       0.60789100
H       10.85090000       8.35270000       9.87907000       1.37248800       0.50399000       0.30007900
H        9.45897000       8.37077000      10.72180000       0.18766800       0.02147400      -0.07013000
H       14.68300000       8.26403000      12.07840000       0.25303700       0.09201600      -0.02685700
H       13.37320000       8.35882000      12.93920000      -0.14391300      -0.18522000      -0.36802600
H       14.80360000       8.40951000      16.57520000      -0.04918700      -0.08878800      -0.07289900
H       13.85160000       7.10565000      16.55400000       0.13815100       0.52433300       0.03839000
H       14.71330000      12.42850000      16.51710000       0.21820800      -0.44879100       0.12835400
H       13.35220000      12.28820000      15.69830000      -0.00157300      -0.13210500      -0.41812300
H        9.36222000       8.78848000      15.63380000      -0.94916300       0.19734200       0.13283500
H        7.85910000       8.90210000      16.35370000       0.79702100       0.00017400      -0.15573900
O        1.22981000       1.80487000       3.37923000      -0.08640300      -0.94166400      -0.35079800
O        5.02313000       4.39686000       1.01951000      -1.23236800      -0.35507800       0.19454600
O        6.15146000       5.39421000       3.28958000       0.02580600      -0.06200700      -0.72327400
O        5.00536000       4.56445000       5.50207000      -0.18155400      -0.54520400       0.43771500
O        2.56324000       0.86200000       5.52045000      -0.31810000      -0.21030100       0.10601700
O        2.48435000       5.44113000       5.55803000      -1.08972700       0.58241800      -0.53503300
O        5.04951000       1.67006000       1.02272000      -0.50330600      -0.08740500       0.73035800
O        5.01110000       1.85727000       5.29015000      -0.09004000      -0.09670700      -0.36055400
O        1.31152000       4.40975000       7.73678000      -0.27189300      -0.67867000       0.31891200
O        1.26212000       4.44482000       3.38545000       0.04713800      -0.12898200      -0.38656100
O        2.50034000       5.34088000       1.14557000      -0.68020300      -0.71670400       0.00982500
O        2.45745000       0.84539000       1.16239000       0.93510000       0.16286100       0.38955900
O        6.40246000       0.75150000       3.23102000      -1.29450900       0.00266600       0.24642000
O        6.23659000       0.97713000       7.54161000      -0.37915400      -0.47201700       0.51433200
O        6.43538000       5.36365000       7.61840000      -0.15757700      -0.28548000      -0.29026100
O        1.26861000       1.75197000       7.70256000      -0.31541900       0.29410700      -0.51307800
O        8.95140000       1.80068000       3.03807000      -0.05578900       0.58721600       0.09894600
O       12.64430000       4.61147000       1.07456000       0.38216700       0.29748900       0.15769800
O       13.98180000       5.48753000       3.27381000      -0.19829600       0.24735900       0.33144400
O       12.76560000       4.37079000       5.34414000       0.33657900       0.04898500       0.49556200
O       10.10540000       0.87084000       5.26408000       0.49848500      -0.67240500      -0.83121100
O       10.23220000       5.21586000       5.43114000      -0.27190500       0.65521300       0.08168000
O       12.81690000       1.94709000       1.01556000      -0.19955000       0.00118000      -0.66091100
O       12.63860000       1.74335000       5.41440000      -0.25386300      -0.46655200      -0.58621800
O        9.02535000       4.34427000       7.82395000      -0.24941000       0.89653800      -1.18169000